LAMMPS (29 Sep 2021 - Update 2)
OMP_NUM_THREADS environment is not set. Defaulting to 1 thread. (src/comm.cpp:98)
  using 1 OpenMP thread(s) per MPI task
Reading data file ...
  triclinic box = (0.0000000 0.0000000 0.0000000) to (22.326000 11.141200 13.778966) with tilt (0.0000000 -5.0260300 0.0000000)
  2 by 1 by 2 MPI processor grid
  reading atoms ...
  304 atoms
  reading velocities ...
  304 velocities
  read_data CPU = 0.004 seconds
Replicating atoms ...
  triclinic box = (0.0000000 0.0000000 0.0000000) to (89.304000 44.564800 55.115864) with tilt (0.0000000 -20.104120 0.0000000)
  2 by 1 by 2 MPI processor grid
  bounding box image = (0 -1 -1) to (0 1 1)
  bounding box extra memory = 0.03 MB
  average # of replicas added to proc = 34.00 out of 64 (53.12%)
  19456 atoms
  replicate CPU = 0.003 seconds
Neighbor list info ...
  update every 20 steps, delay 0 steps, check no
  max neighbors/atom: 2000, page size: 100000
  master list distance cutoff = 11
  ghost atom cutoff = 11
  binsize = 5.5, bins = 20 9 11
  2 neighbor lists, perpetual/occasional/extra = 2 0 0
  (1) pair reax/c, perpetual
      attributes: half, newton off, ghost
      pair build: half/bin/newtoff/ghost
      stencil: full/ghost/bin/3d
      bin: standard
  (2) fix qeq/reax, perpetual, copy from (1)
      attributes: half, newton off, ghost
      pair build: copy
      stencil: none
      bin: none
Setting up Verlet run ...
  Unit style    : real
  Current step  : 0
  Time step     : 0.1
Per MPI rank memory allocation (min/avg/max) = 331.0 | 331.0 | 331.0 Mbytes
Step Temp PotEng Press E_vdwl E_coul Volume 
       0          300   -113.27833    438.83649   -111.57687   -1.7014647    219350.94 
      10     301.2473   -113.28192    1324.9124   -111.58051   -1.7014165    219350.94 
      20    302.25627   -113.28484    2550.2927   -111.58354   -1.7012946    219350.94 
      30    301.57272    -113.2826    5400.3035   -111.58154   -1.7010544    219350.94 
      40    299.70196   -113.27693    7272.9197   -111.57623   -1.7007065    219350.94 
      50    297.28907   -113.26968    6610.3612   -111.56937   -1.7003128    219350.94 
      60    294.64774    -113.2617    5720.3788   -111.56178   -1.6999185    219350.94 
      70    293.92945   -113.25953    5709.7733   -111.56001   -1.6995234    219350.94 
      80    296.72363   -113.26783    6678.1703   -111.56871   -1.6991171    219350.94 
      90    301.41818   -113.28184    8078.0956   -111.58311   -1.6987272    219350.94 
     100    303.68663   -113.28857    10072.364   -111.59016   -1.6984124    219350.94 
Loop time of 39.6475 on 4 procs for 100 steps with 19456 atoms

Performance: 0.022 ns/day, 1101.319 hours/ns, 2.522 timesteps/s
89.3% CPU use with 4 MPI tasks x 1 OpenMP threads

MPI task timing breakdown:
Section |  min time  |  avg time  |  max time  |%varavg| %total
---------------------------------------------------------------
Pair    | 21.427     | 23.214     | 24.93      |  28.4 | 58.55
Neigh   | 0.56945    | 0.57187    | 0.57559    |   0.3 |  1.44
Comm    | 0.1618     | 1.879      | 3.6662     |  99.9 |  4.74
Output  | 0.0050975  | 0.0053713  | 0.0056231  |   0.3 |  0.01
Modify  | 13.971     | 13.976     | 13.978     |   0.1 | 35.25
Other   |            | 0.00161    |            |       |  0.00

Nlocal:        4864.00 ave        4869 max        4859 min
Histogram: 1 0 0 0 1 0 1 0 0 1
Nghost:        14878.2 ave       14889 max       14866 min
Histogram: 1 0 1 0 0 0 0 0 1 1
Neighs:    1.56177e+06 ave   1.563e+06 max 1.56036e+06 min
Histogram: 1 0 0 0 0 2 0 0 0 1

Total # of neighbors = 6247067
Ave neighs/atom = 321.08691
Neighbor list builds = 5
Dangerous builds not checked
Total wall time: 0:00:40
