LAMMPS (29 Sep 2021 - Update 2)
OMP_NUM_THREADS environment is not set. Defaulting to 1 thread. (src/comm.cpp:98)
  using 1 OpenMP thread(s) per MPI task
Reading data file ...
  triclinic box = (0.0000000 0.0000000 0.0000000) to (22.326000 11.141200 13.778966) with tilt (0.0000000 -5.0260300 0.0000000)
  2 by 2 by 2 MPI processor grid
  reading atoms ...
  304 atoms
  reading velocities ...
  304 velocities
  read_data CPU = 0.003 seconds
Replicating atoms ...
  triclinic box = (0.0000000 0.0000000 0.0000000) to (44.652000 22.282400 27.557932) with tilt (0.0000000 -10.052060 0.0000000)
  2 by 2 by 2 MPI processor grid
  bounding box image = (0 -1 -1) to (0 1 1)
  bounding box extra memory = 0.03 MB
  average # of replicas added to proc = 6.00 out of 8 (75.00%)
  2432 atoms
  replicate CPU = 0.002 seconds
Neighbor list info ...
  update every 20 steps, delay 0 steps, check no
  max neighbors/atom: 2000, page size: 100000
  master list distance cutoff = 11
  ghost atom cutoff = 11
  binsize = 5.5, bins = 10 5 6
  2 neighbor lists, perpetual/occasional/extra = 2 0 0
  (1) pair reax/c, perpetual
      attributes: half, newton off, ghost
      pair build: half/bin/newtoff/ghost
      stencil: full/ghost/bin/3d
      bin: standard
  (2) fix qeq/reax, perpetual, copy from (1)
      attributes: half, newton off, ghost
      pair build: copy
      stencil: none
      bin: none
Setting up Verlet run ...
  Unit style    : real
  Current step  : 0
  Time step     : 0.1
Per MPI rank memory allocation (min/avg/max) = 78.15 | 78.15 | 78.15 Mbytes
Step Temp PotEng Press E_vdwl E_coul Volume 
       0          300   -113.27833    437.52527   -111.57687   -1.7014647    27418.867 
      10    302.45195   -113.28552    3548.4011   -111.58441   -1.7011118    27418.867 
      20    302.39784   -113.28517     5963.911   -111.58443   -1.7007341    27418.867 
      30    298.13028   -113.27217    10123.335   -111.57186   -1.7003189    27418.867 
      40    293.43866   -113.25773    12827.586   -111.55785   -1.6998872    27418.867 
      50    292.17905    -113.2542    12089.258    -111.5547   -1.6994925    27418.867 
      60    293.82353   -113.25912    11172.946   -111.55996   -1.6991673    27418.867 
      70    296.20761   -113.26646    10459.495   -111.56756   -1.6988994    27418.867 
      80    297.98756   -113.27176    9488.5766    -111.5731   -1.6986629    27418.867 
      90    298.71673   -113.27395     8103.527   -111.57547    -1.698474    27418.867 
     100    297.70128   -113.27094    8201.5246   -111.57255   -1.6983837    27418.867 
Loop time of 13.5809 on 8 procs for 100 steps with 2432 atoms

Performance: 0.064 ns/day, 377.248 hours/ns, 7.363 timesteps/s
37.2% CPU use with 8 MPI tasks x 1 OpenMP threads

MPI task timing breakdown:
Section |  min time  |  avg time  |  max time  |%varavg| %total
---------------------------------------------------------------
Pair    | 5.4015     | 7.3703     | 8.8274     |  39.6 | 54.27
Neigh   | 0.10263    | 0.17304    | 0.25439    |  14.7 |  1.27
Comm    | 0.23651    | 1.7174     | 3.71       |  83.6 | 12.65
Output  | 0.0034154  | 0.0036251  | 0.003757   |   0.2 |  0.03
Modify  | 4.2586     | 4.3161     | 4.3627     |   1.9 | 31.78
Other   |            | 0.0004583  |            |       |  0.00

Nlocal:        304.000 ave         306 max         302 min
Histogram: 1 0 2 0 0 2 0 2 0 1
Nghost:        4439.12 ave        4446 max        4433 min
Histogram: 1 1 0 3 0 0 1 0 1 1
Neighs:        123962.0 ave      124758 max      123183 min
Histogram: 1 0 2 0 0 2 0 2 0 1

Total # of neighbors = 991695
Ave neighs/atom = 407.76933
Neighbor list builds = 5
Dangerous builds not checked
Total wall time: 0:00:13
