LAMMPS (29 Sep 2021 - Update 2)
OMP_NUM_THREADS environment is not set. Defaulting to 1 thread. (src/comm.cpp:98)
  using 1 OpenMP thread(s) per MPI task
Reading data file ...
  triclinic box = (0.0000000 0.0000000 0.0000000) to (22.326000 11.141200 13.778966) with tilt (0.0000000 -5.0260300 0.0000000)
  2 by 1 by 2 MPI processor grid
  reading atoms ...
  304 atoms
  reading velocities ...
  304 velocities
  read_data CPU = 0.008 seconds
Replicating atoms ...
  triclinic box = (0.0000000 0.0000000 0.0000000) to (89.304000 44.564800 27.557932) with tilt (0.0000000 -10.052060 0.0000000)
  2 by 2 by 1 MPI processor grid
  bounding box image = (0 -1 -1) to (0 1 1)
  bounding box extra memory = 0.03 MB
  average # of replicas added to proc = 18.00 out of 32 (56.25%)
  9728 atoms
  replicate CPU = 0.007 seconds
Neighbor list info ...
  update every 20 steps, delay 0 steps, check no
  max neighbors/atom: 2000, page size: 100000
  master list distance cutoff = 11
  ghost atom cutoff = 11
  binsize = 5.5, bins = 19 9 6
  2 neighbor lists, perpetual/occasional/extra = 2 0 0
  (1) pair reax/c, perpetual
      attributes: half, newton off, ghost
      pair build: half/bin/newtoff/ghost
      stencil: full/ghost/bin/3d
      bin: standard
  (2) fix qeq/reax, perpetual, copy from (1)
      attributes: half, newton off, ghost
      pair build: copy
      stencil: none
      bin: none
Setting up Verlet run ...
  Unit style    : real
  Current step  : 0
  Time step     : 0.1
Per MPI rank memory allocation (min/avg/max) = 215.0 | 215.0 | 215.0 Mbytes
Step Temp PotEng Press E_vdwl E_coul Volume 
       0          300   -113.27833    438.64914   -111.57687   -1.7014647    109675.47 
      10    301.52733   -113.28276    1616.6285   -111.58113   -1.7016237    109675.47 
      20    302.65644     -113.286    2970.7551    -111.5843   -1.7016925    109675.47 
      30     302.0442   -113.28398    5272.9602   -111.58238   -1.7016015    109675.47 
      40     300.2744    -113.2786    6826.8347   -111.57725   -1.7013489    109675.47 
      50    297.79239   -113.27121     6333.826   -111.57021   -1.7009998    109675.47 
      60    295.04346   -113.26293    5587.6932   -111.56232   -1.7006082    109675.47 
      70    294.11772   -113.26006    5768.7893   -111.55988   -1.7001784    109675.47 
      80    296.96648   -113.26845    6476.9035   -111.56874   -1.6997058    109675.47 
      90    301.80211   -113.28294    7590.0039   -111.58371   -1.6992271    109675.47 
     100    303.87287   -113.28915    9668.8814   -111.59034   -1.6988079    109675.47 
Loop time of 25.3141 on 4 procs for 100 steps with 9728 atoms

Performance: 0.034 ns/day, 703.168 hours/ns, 3.950 timesteps/s
91.1% CPU use with 4 MPI tasks x 1 OpenMP threads

MPI task timing breakdown:
Section |  min time  |  avg time  |  max time  |%varavg| %total
---------------------------------------------------------------
Pair    | 14.716     | 16.017     | 17.328     |  25.2 | 63.27
Neigh   | 0.40597    | 0.40742    | 0.41095    |   0.3 |  1.61
Comm    | 0.090323   | 1.4        | 2.7016     |  85.2 |  5.53
Output  | 0.0047474  | 0.0051967  | 0.0055115  |   0.4 |  0.02
Modify  | 7.4782     | 7.4825     | 7.4849     |   0.1 | 29.56
Other   |            | 0.002222   |            |       |  0.01

Nlocal:        2432.00 ave        2433 max        2431 min
Histogram: 2 0 0 0 0 0 0 0 0 2
Nghost:        10690.8 ave       10693 max       10687 min
Histogram: 1 0 0 0 0 0 1 0 1 1
Neighs:        824137.0 ave      824427 max      823654 min
Histogram: 1 0 0 0 0 1 0 0 0 2

Total # of neighbors = 3296548
Ave neighs/atom = 338.87212
Neighbor list builds = 5
Dangerous builds not checked
Total wall time: 0:00:25
