LAMMPS (29 Sep 2021 - Update 2)
OMP_NUM_THREADS environment is not set. Defaulting to 1 thread. (src/comm.cpp:98)
  using 1 OpenMP thread(s) per MPI task
Reading data file ...
  triclinic box = (0.0000000 0.0000000 0.0000000) to (22.326000 11.141200 13.778966) with tilt (0.0000000 -5.0260300 0.0000000)
  2 by 1 by 2 MPI processor grid
  reading atoms ...
  304 atoms
  reading velocities ...
  304 velocities
  read_data CPU = 0.008 seconds
Replicating atoms ...
  triclinic box = (0.0000000 0.0000000 0.0000000) to (44.652000 22.282400 27.557932) with tilt (0.0000000 -10.052060 0.0000000)
  2 by 1 by 2 MPI processor grid
  bounding box image = (0 -1 -1) to (0 1 1)
  bounding box extra memory = 0.03 MB
  average # of replicas added to proc = 5.00 out of 8 (62.50%)
  2432 atoms
  replicate CPU = 0.003 seconds
Neighbor list info ...
  update every 20 steps, delay 0 steps, check no
  max neighbors/atom: 2000, page size: 100000
  master list distance cutoff = 11
  ghost atom cutoff = 11
  binsize = 5.5, bins = 10 5 6
  2 neighbor lists, perpetual/occasional/extra = 2 0 0
  (1) pair reax/c, perpetual
      attributes: half, newton off, ghost
      pair build: half/bin/newtoff/ghost
      stencil: full/ghost/bin/3d
      bin: standard
  (2) fix qeq/reax, perpetual, copy from (1)
      attributes: half, newton off, ghost
      pair build: copy
      stencil: none
      bin: none
Setting up Verlet run ...
  Unit style    : real
  Current step  : 0
  Time step     : 0.1
Per MPI rank memory allocation (min/avg/max) = 103.8 | 103.8 | 103.8 Mbytes
Step Temp PotEng Press E_vdwl E_coul Volume 
       0          300   -113.27833    437.52118   -111.57687   -1.7014647    27418.867 
      10    299.38517   -113.27631    1439.2449   -111.57492   -1.7013814    27418.867 
      20    300.27106   -113.27884    3764.3565   -111.57762   -1.7012246    27418.867 
      30    302.21063   -113.28428     7007.709   -111.58335   -1.7009363    27418.867 
      40    303.52265   -113.28799    9844.8297   -111.58747   -1.7005186    27418.867 
      50    301.87059   -113.28324    9663.0567   -111.58318   -1.7000523    27418.867 
      60    296.67806   -113.26777    7273.8146   -111.56815   -1.6996137    27418.867 
      70    292.19998   -113.25435    5533.6324   -111.55514   -1.6992157    27418.867 
      80    293.58677   -113.25831    5993.3848   -111.55946   -1.6988534    27418.867 
      90    300.62636   -113.27925    7202.8542   -111.58069   -1.6985592    27418.867 
     100    305.38275   -113.29357     10085.75   -111.59518   -1.6983875    27418.867 
Loop time of 15.7705 on 4 procs for 100 steps with 2432 atoms

Performance: 0.055 ns/day, 438.069 hours/ns, 6.341 timesteps/s
72.1% CPU use with 4 MPI tasks x 1 OpenMP threads

MPI task timing breakdown:
Section |  min time  |  avg time  |  max time  |%varavg| %total
---------------------------------------------------------------
Pair    | 6.8408     | 7.847      | 9.1838     |  32.6 | 49.76
Neigh   | 0.25897    | 0.2644     | 0.27028    |   1.0 |  1.68
Comm    | 0.53086    | 1.8701     | 2.8759     |  66.8 | 11.86
Output  | 0.011168   | 0.011772   | 0.012382   |   0.5 |  0.07
Modify  | 5.7613     | 5.7751     | 5.7857     |   0.4 | 36.62
Other   |            | 0.002081   |            |       |  0.01

Nlocal:        608.000 ave         612 max         604 min
Histogram: 1 0 0 0 0 2 0 0 0 1
Nghost:        5737.25 ave        5744 max        5732 min
Histogram: 1 0 1 0 0 1 0 0 0 1
Neighs:        231539.0 ave      233090 max      229970 min
Histogram: 1 0 0 0 1 1 0 0 0 1

Total # of neighbors = 926155
Ave neighs/atom = 380.82031
Neighbor list builds = 5
Dangerous builds not checked
Total wall time: 0:00:16
