LAMMPS (29 Sep 2021 - Update 2)
OMP_NUM_THREADS environment is not set. Defaulting to 1 thread. (src/comm.cpp:98)
  using 1 OpenMP thread(s) per MPI task
Reading data file ...
  triclinic box = (0.0000000 0.0000000 0.0000000) to (22.326000 11.141200 13.778966) with tilt (0.0000000 -5.0260300 0.0000000)
  4 by 2 by 3 MPI processor grid
  reading atoms ...
  304 atoms
  reading velocities ...
  304 velocities
  read_data CPU = 0.005 seconds
Replicating atoms ...
  triclinic box = (0.0000000 0.0000000 0.0000000) to (44.652000 22.282400 27.557932) with tilt (0.0000000 -10.052060 0.0000000)
  4 by 2 by 3 MPI processor grid
  bounding box image = (0 -1 -1) to (0 1 1)
  bounding box extra memory = 0.03 MB
  average # of replicas added to proc = 5.00 out of 8 (62.50%)
  2432 atoms
  replicate CPU = 0.004 seconds
Neighbor list info ...
  update every 20 steps, delay 0 steps, check no
  max neighbors/atom: 2000, page size: 100000
  master list distance cutoff = 11
  ghost atom cutoff = 11
  binsize = 5.5, bins = 10 5 6
  2 neighbor lists, perpetual/occasional/extra = 2 0 0
  (1) pair reax/c, perpetual
      attributes: half, newton off, ghost
      pair build: half/bin/newtoff/ghost
      stencil: full/ghost/bin/3d
      bin: standard
  (2) fix qeq/reax, perpetual, copy from (1)
      attributes: half, newton off, ghost
      pair build: copy
      stencil: none
      bin: none
Setting up Verlet run ...
  Unit style    : real
  Current step  : 0
  Time step     : 0.1
Per MPI rank memory allocation (min/avg/max) = 51.99 | 52.55 | 53.28 Mbytes
Step Temp PotEng Press E_vdwl E_coul Volume 
       0          300   -113.27833    437.52533   -111.57687   -1.7014647    27418.867 
      10    302.45195   -113.28552    3548.4181   -111.58441   -1.7011118    27418.867 
      20    302.39785   -113.28517    5963.8648   -111.58443   -1.7007342    27418.867 
      30     298.1303   -113.27217    10123.318   -111.57186    -1.700319    27418.867 
      40    293.43866   -113.25773    12827.562   -111.55785   -1.6998873    27418.867 
      50    292.17904    -113.2542     12089.26    -111.5547   -1.6994925    27418.867 
      60    293.82354   -113.25912    11172.911   -111.55996   -1.6991674    27418.867 
      70    296.20762   -113.26646    10459.524   -111.56756   -1.6988994    27418.867 
      80    297.98757   -113.27176    9488.5021    -111.5731    -1.698663    27418.867 
      90    298.71674   -113.27395    8103.4748   -111.57547   -1.6984741    27418.867 
     100    297.70128   -113.27094    8201.4833   -111.57255   -1.6983837    27418.867 
Loop time of 21.0992 on 24 procs for 100 steps with 2432 atoms

Performance: 0.041 ns/day, 586.089 hours/ns, 4.740 timesteps/s
18.7% CPU use with 24 MPI tasks x 1 OpenMP threads

MPI task timing breakdown:
Section |  min time  |  avg time  |  max time  |%varavg| %total
---------------------------------------------------------------
Pair    | 1.7295     | 3.3555     | 5.9008     |  82.1 | 15.90
Neigh   | 0.0599     | 0.061018   | 0.062575   |   0.3 |  0.29
Comm    | 3.1888     | 5.7217     | 7.4031     |  63.4 | 27.12
Output  | 0.16552    | 0.22918    | 0.29127    |   8.1 |  1.09
Modify  | 11.659     | 11.731     | 11.801     |   1.1 | 55.60
Other   |            | 0.0005048  |            |       |  0.00

Nlocal:        101.333 ave         107 max          96 min
Histogram: 1 3 3 5 2 2 2 3 0 3
Nghost:        3012.04 ave        3079 max        2972 min
Histogram: 10 2 0 2 2 0 1 2 1 4
Neighs:        45044.7 ave       47281 max       42825 min
Histogram: 1 3 3 4 3 0 4 3 0 3

Total # of neighbors = 1081073
Ave neighs/atom = 444.52015
Neighbor list builds = 5
Dangerous builds not checked
Total wall time: 0:00:21
