LAMMPS (29 Sep 2021 - Update 2)
OMP_NUM_THREADS environment is not set. Defaulting to 1 thread. (src/comm.cpp:98)
  using 1 OpenMP thread(s) per MPI task
Reading data file ...
  triclinic box = (0.0000000 0.0000000 0.0000000) to (22.326000 11.141200 13.778966) with tilt (0.0000000 -5.0260300 0.0000000)
  4 by 2 by 2 MPI processor grid
  reading atoms ...
  304 atoms
  reading velocities ...
  304 velocities
  read_data CPU = 0.012 seconds
Replicating atoms ...
  triclinic box = (0.0000000 0.0000000 0.0000000) to (44.652000 22.282400 27.557932) with tilt (0.0000000 -10.052060 0.0000000)
  4 by 2 by 2 MPI processor grid
  bounding box image = (0 -1 -1) to (0 1 1)
  bounding box extra memory = 0.03 MB
  average # of replicas added to proc = 5.00 out of 8 (62.50%)
  2432 atoms
  replicate CPU = 0.003 seconds
Neighbor list info ...
  update every 20 steps, delay 0 steps, check no
  max neighbors/atom: 2000, page size: 100000
  master list distance cutoff = 11
  ghost atom cutoff = 11
  binsize = 5.5, bins = 10 5 6
  2 neighbor lists, perpetual/occasional/extra = 2 0 0
  (1) pair reax/c, perpetual
      attributes: half, newton off, ghost
      pair build: half/bin/newtoff/ghost
      stencil: full/ghost/bin/3d
      bin: standard
  (2) fix qeq/reax, perpetual, copy from (1)
      attributes: half, newton off, ghost
      pair build: copy
      stencil: none
      bin: none
Setting up Verlet run ...
  Unit style    : real
  Current step  : 0
  Time step     : 0.1
Per MPI rank memory allocation (min/avg/max) = 58.81 | 59.37 | 59.93 Mbytes
Step Temp PotEng Press E_vdwl E_coul Volume 
       0          300   -113.27833    437.52529   -111.57687   -1.7014647    27418.867 
      10    302.45195   -113.28552    3548.4118   -111.58441   -1.7011118    27418.867 
      20    302.39784   -113.28517    5963.8835   -111.58443   -1.7007341    27418.867 
      30    298.13029   -113.27217    10123.387   -111.57186   -1.7003188    27418.867 
      40    293.43866   -113.25773    12827.552   -111.55785   -1.6998873    27418.867 
      50    292.17904    -113.2542    12089.243    -111.5547   -1.6994925    27418.867 
      60    293.82354   -113.25912    11172.932   -111.55996   -1.6991673    27418.867 
      70     296.2076   -113.26646    10459.494   -111.56756   -1.6988994    27418.867 
      80    297.98757   -113.27176    9488.5343    -111.5731    -1.698663    27418.867 
      90    298.71674   -113.27395    8103.5206   -111.57547    -1.698474    27418.867 
     100    297.70128   -113.27094    8201.5447   -111.57255   -1.6983836    27418.867 
Loop time of 12.6962 on 16 procs for 100 steps with 2432 atoms

Performance: 0.068 ns/day, 352.673 hours/ns, 7.876 timesteps/s
28.7% CPU use with 16 MPI tasks x 1 OpenMP threads

MPI task timing breakdown:
Section |  min time  |  avg time  |  max time  |%varavg| %total
---------------------------------------------------------------
Pair    | 1.8948     | 5.3753     | 7.3955     |  84.6 | 42.34
Neigh   | 0.070872   | 0.071638   | 0.072173   |   0.2 |  0.56
Comm    | 1.0667     | 3.11       | 6.6217     | 112.0 | 24.50
Output  | 0.0060302  | 0.0064499  | 0.0070167  |   0.4 |  0.05
Modify  | 4.1004     | 4.1323     | 4.1731     |   1.6 | 32.55
Other   |            | 0.0004346  |            |       |  0.00

Nlocal:        152.000 ave         155 max         149 min
Histogram: 4 1 0 2 0 1 3 0 2 3
Nghost:        3415.06 ave        3439 max        3397 min
Histogram: 5 3 0 0 0 0 4 0 2 2
Neighs:        65390.0 ave       66697 max       64113 min
Histogram: 4 1 0 2 1 0 3 1 1 3

Total # of neighbors = 1046240
Ave neighs/atom = 430.19737
Neighbor list builds = 5
Dangerous builds not checked
Total wall time: 0:00:13
