LAMMPS (29 Sep 2021 - Update 2)
OMP_NUM_THREADS environment is not set. Defaulting to 1 thread. (src/comm.cpp:98)
  using 1 OpenMP thread(s) per MPI task
Reading data file ...
  triclinic box = (0.0000000 0.0000000 0.0000000) to (22.326000 11.141200 13.778966) with tilt (0.0000000 -5.0260300 0.0000000)
  8 by 4 by 4 MPI processor grid
  reading atoms ...
  304 atoms
  reading velocities ...
  304 velocities
  read_data CPU = 0.011 seconds
Replicating atoms ...
  triclinic box = (0.0000000 0.0000000 0.0000000) to (22.326000 11.141200 13.778966) with tilt (0.0000000 -5.0260300 0.0000000)
  8 by 4 by 4 MPI processor grid
  bounding box image = (0 -1 -1) to (0 1 1)
  bounding box extra memory = 0.03 MB
  average # of replicas added to proc = 1.00 out of 1 (100.00%)
  304 atoms
  replicate CPU = 0.010 seconds
Neighbor list info ...
  update every 20 steps, delay 0 steps, check no
  max neighbors/atom: 2000, page size: 100000
  master list distance cutoff = 11
  ghost atom cutoff = 11
  binsize = 5.5, bins = 5 3 3
  2 neighbor lists, perpetual/occasional/extra = 2 0 0
  (1) pair reax/c, perpetual
      attributes: half, newton off, ghost
      pair build: half/bin/newtoff/ghost
      stencil: full/ghost/bin/3d
      bin: standard
  (2) fix qeq/reax, perpetual, copy from (1)
      attributes: half, newton off, ghost
      pair build: copy
      stencil: none
      bin: none
Setting up Verlet run ...
  Unit style    : real
  Current step  : 0
  Time step     : 0.1
Per MPI rank memory allocation (min/avg/max) = 26.62 | 27.22 | 27.83 Mbytes
Step Temp PotEng Press E_vdwl E_coul Volume 
       0          300   -113.27833     427.0901   -111.57687   -1.7014647    3427.3584 
      10    300.69913    -113.2804    3837.0509   -111.57974   -1.7006605    3427.3584 
      20    299.56804    -113.2768    3834.9578   -111.57686   -1.6999429    3427.3584 
      30     296.1547   -113.26682    3741.8716   -111.56751   -1.6993029    3427.3584 
      40    296.30696   -113.26648    5936.9327   -111.56777   -1.6987101    3427.3584 
      50    302.37014    -113.2843    8990.4333   -111.58611    -1.698193    3427.3584 
      60    307.42096   -113.29924    12463.798   -111.60143   -1.6978119    3427.3584 
      70    304.46547   -113.29123    15670.397   -111.59364   -1.6975881    3427.3584 
      80    297.51804   -113.27002    15508.202   -111.57254    -1.697472    3427.3584 
      90    294.13773   -113.26034    11328.305    -111.5629   -1.6974327    3427.3584 
     100    293.51457   -113.25816    8310.4018   -111.56065   -1.6975094    3427.3584 
Loop time of 7.53876 on 128 procs for 100 steps with 304 atoms

Performance: 0.115 ns/day, 209.410 hours/ns, 13.265 timesteps/s
96.8% CPU use with 128 MPI tasks x 1 OpenMP threads

MPI task timing breakdown:
Section |  min time  |  avg time  |  max time  |%varavg| %total
---------------------------------------------------------------
Pair    | 0.95614    | 1.0179     | 1.0955     |   2.6 | 13.50
Neigh   | 0.029542   | 0.030576   | 0.031851   |   0.3 |  0.41
Comm    | 0.35419    | 0.4622     | 0.53156    |   4.9 |  6.13
Output  | 0.013567   | 0.015069   | 0.01883    |   0.6 |  0.20
Modify  | 5.9959     | 6.0125     | 6.0519     |   0.6 | 79.75
Other   |            | 0.0004386  |            |       |  0.01

Nlocal:        2.37500 ave           6 max           0 min
Histogram: 11 29 0 36 0 25 12 0 10 5
Nghost:        1473.62 ave        1520 max        1437 min
Histogram: 11 5 14 23 24 20 17 9 3 2
Neighs:        1163.27 ave        2957 max           0 min
Histogram: 11 29 0 36 20 5 12 0 10 5

Total # of neighbors = 148898
Ave neighs/atom = 489.79605
Neighbor list builds = 5
Dangerous builds not checked
Total wall time: 0:00:07
