LAMMPS (29 Sep 2021 - Update 2)
OMP_NUM_THREADS environment is not set. Defaulting to 1 thread. (src/comm.cpp:98)
  using 1 OpenMP thread(s) per MPI task
Reading data file ...
  triclinic box = (0.0000000 0.0000000 0.0000000) to (22.326000 11.141200 13.778966) with tilt (0.0000000 -5.0260300 0.0000000)
  8 by 6 by 8 MPI processor grid
  reading atoms ...
  304 atoms
  reading velocities ...
  304 velocities
  read_data CPU = 0.132 seconds
Replicating atoms ...
  triclinic box = (0.0000000 0.0000000 0.0000000) to (1428.8640 178.25920 110.23173) with tilt (0.0000000 -40.208240 0.0000000)
  32 by 4 by 3 MPI processor grid
  bounding box image = (0 -1 -1) to (0 1 1)
  bounding box extra memory = 0.03 MB
  average # of replicas added to proc = 71.16 out of 8192 (0.87%)
  2490368 atoms
  replicate CPU = 0.009 seconds
Neighbor list info ...
  update every 20 steps, delay 0 steps, check no
  max neighbors/atom: 2000, page size: 100000
  master list distance cutoff = 11
  ghost atom cutoff = 11
  binsize = 5.5, bins = 268 33 21
  2 neighbor lists, perpetual/occasional/extra = 2 0 0
  (1) pair reax/c, perpetual
      attributes: half, newton off, ghost
      pair build: half/bin/newtoff/ghost
      stencil: full/ghost/bin/3d
      bin: standard
  (2) fix qeq/reax, perpetual, copy from (1)
      attributes: half, newton off, ghost
      pair build: copy
      stencil: none
      bin: none
Setting up Verlet run ...
  Unit style    : real
  Current step  : 0
  Time step     : 0.1
Per MPI rank memory allocation (min/avg/max) = 391.9 | 394.2 | 397.1 Mbytes
Step Temp PotEng Press E_vdwl E_coul Volume 
       0          300   -113.27833    439.01906   -111.57687   -1.7014647     28076920 
      10    300.71798    -113.2803    808.77976   -111.57886   -1.7014409     28076920 
      20     302.3783   -113.28511    1657.2765   -111.58377   -1.7013352     28076920 
      30    302.55577   -113.28551    4230.1069    -111.5844   -1.7011123     28076920 
      40    300.62726   -113.27969    6341.3629    -111.5789   -1.7007923     28076920 
      50     297.4189   -113.27009     6491.292   -111.56965   -1.7004331     28076920 
      60    294.70495   -113.26195    6232.3299   -111.56188   -1.7000699     28076920 
      70    294.60312   -113.26159     6885.668   -111.56189   -1.6997002     28076920 
      80    297.72561   -113.27089    8295.5532   -111.57156   -1.6993282     28076920 
      90    301.67497   -113.28266    9436.9141   -111.58366   -1.6989963     28076920 
     100    302.61725   -113.28541     10446.48   -111.58665   -1.6987567     28076920 
Loop time of 67.1195 on 384 procs for 100 steps with 2490368 atoms

Performance: 0.013 ns/day, 1864.432 hours/ns, 1.490 timesteps/s
87.4% CPU use with 384 MPI tasks x 1 OpenMP threads

MPI task timing breakdown:
Section |  min time  |  avg time  |  max time  |%varavg| %total
---------------------------------------------------------------
Pair    | 37.083     | 40.194     | 44.423     |  17.6 | 59.88
Neigh   | 0.65216    | 0.66679    | 0.89041    |   1.7 |  0.99
Comm    | 0.21802    | 2.965      | 6.9676     |  82.6 |  4.42
Output  | 0.033788   | 0.2055     | 0.2871     |  16.8 |  0.31
Modify  | 21.546     | 23.083     | 23.89      |  17.2 | 34.39
Other   |            | 0.005299   |            |       |  0.01

Nlocal:        6485.33 ave        6522 max        6450 min
Histogram: 97 31 0 0 14 78 34 43 67 20
Nghost:        16964.1 ave       17198 max       16781 min
Histogram: 119 9 49 79 0 0 0 0 1 127
Neighs:    2.03164e+06 ave 2.04341e+06 max 2.02222e+06 min
Histogram: 94 34 0 30 67 29 6 54 59 11

Total # of neighbors = 7.8015067e+08
Ave neighs/atom = 313.26722
Neighbor list builds = 5
Dangerous builds not checked
Total wall time: 0:01:09
