LAMMPS (29 Sep 2021 - Update 2)
OMP_NUM_THREADS environment is not set. Defaulting to 1 thread. (src/comm.cpp:98)
  using 1 OpenMP thread(s) per MPI task
Reading data file ...
  triclinic box = (0.0000000 0.0000000 0.0000000) to (22.326000 11.141200 13.778966) with tilt (0.0000000 -5.0260300 0.0000000)
  2 by 2 by 2 MPI processor grid
  reading atoms ...
  304 atoms
  reading velocities ...
  304 velocities
  read_data CPU = 0.015 seconds
Replicating atoms ...
  triclinic box = (0.0000000 0.0000000 0.0000000) to (44.652000 22.282400 27.557932) with tilt (0.0000000 -10.052060 0.0000000)
  2 by 2 by 2 MPI processor grid
  bounding box image = (0 -1 -1) to (0 1 1)
  bounding box extra memory = 0.03 MB
  average # of replicas added to proc = 5.00 out of 8 (62.50%)
  2432 atoms
  replicate CPU = 0.010 seconds
Neighbor list info ...
  update every 20 steps, delay 0 steps, check no
  max neighbors/atom: 2000, page size: 100000
  master list distance cutoff = 11
  ghost atom cutoff = 11
  binsize = 5.5, bins = 10 5 6
  2 neighbor lists, perpetual/occasional/extra = 2 0 0
  (1) pair reax/c, perpetual
      attributes: half, newton off, ghost
      pair build: half/bin/newtoff/ghost
      stencil: full/ghost/bin/3d
      bin: standard
  (2) fix qeq/reax, perpetual, copy from (1)
      attributes: half, newton off, ghost
      pair build: copy
      stencil: none
      bin: none
Setting up Verlet run ...
  Unit style    : real
  Current step  : 0
  Time step     : 0.1
Per MPI rank memory allocation (min/avg/max) = 78.15 | 78.15 | 78.15 Mbytes
Step Temp PotEng Press E_vdwl E_coul Volume 
       0          300   -113.27833     437.5212   -111.57687   -1.7014647    27418.867 
      10    299.38517   -113.27631    1439.2504   -111.57492   -1.7013814    27418.867 
      20    300.27107   -113.27884    3764.3711   -111.57762   -1.7012246    27418.867 
      30    302.21063   -113.28428    7007.7229   -111.58335   -1.7009362    27418.867 
      40    303.52265   -113.28799    9844.8602   -111.58747   -1.7005186    27418.867 
      50    301.87059   -113.28324    9663.0414   -111.58318   -1.7000524    27418.867 
      60    296.67807   -113.26777    7273.8181   -111.56815   -1.6996137    27418.867 
      70    292.19998   -113.25435    5533.6819   -111.55514   -1.6992156    27418.867 
      80    293.58676   -113.25831    5993.4377   -111.55946   -1.6988533    27418.867 
      90    300.62636   -113.27925    7202.8262   -111.58069   -1.6985592    27418.867 
     100    305.38276   -113.29357    10085.711   -111.59518   -1.6983876    27418.867 
Loop time of 14.526 on 8 procs for 100 steps with 2432 atoms

Performance: 0.059 ns/day, 403.499 hours/ns, 6.884 timesteps/s
64.6% CPU use with 8 MPI tasks x 1 OpenMP threads

MPI task timing breakdown:
Section |  min time  |  avg time  |  max time  |%varavg| %total
---------------------------------------------------------------
Pair    | 4.3913     | 5.3829     | 7.5693     |  42.3 | 37.06
Neigh   | 0.17864    | 0.20011    | 0.24593    |   5.9 |  1.38
Comm    | 0.2967     | 2.4758     | 3.4682     |  62.2 | 17.04
Output  | 0.016447   | 0.018766   | 0.020559   |   1.0 |  0.13
Modify  | 6.3942     | 6.4461     | 6.4718     |   1.2 | 44.38
Other   |            | 0.002317   |            |       |  0.02

Nlocal:        304.000 ave         306 max         301 min
Histogram: 1 0 1 0 2 0 0 0 1 3
Nghost:        4441.75 ave        4447 max        4434 min
Histogram: 1 1 1 0 0 0 0 2 1 2
Neighs:        123945.0 ave      124803 max      122795 min
Histogram: 1 0 1 1 1 0 1 0 1 2

Total # of neighbors = 991559
Ave neighs/atom = 407.71340
Neighbor list builds = 5
Dangerous builds not checked
Total wall time: 0:00:15
