flux-shell[0]:  WARN: pmix: unknown optional fence attr: pmix.sorted.parr
flux-shell[0]:  WARN: pmix: unknown optional fence attr: pmix.size.est
flux-shell[1]:  WARN: pmix: unknown optional fence attr: pmix.sorted.parr
flux-shell[1]:  WARN: pmix: unknown optional fence attr: pmix.size.est
flux-shell[0]:  WARN: pmix: unknown optional fence attr: pmix.sorted.parr
flux-shell[0]:  WARN: pmix: unknown optional fence attr: pmix.size.est
flux-shell[1]:  WARN: pmix: unknown optional fence attr: pmix.sorted.parr
flux-shell[1]:  WARN: pmix: unknown optional fence attr: pmix.size.est
flux-shell[0]:  WARN: pmix: unknown optional fence attr: pmix.sorted.parr
flux-shell[0]:  WARN: pmix: unknown optional fence attr: pmix.size.est
flux-shell[1]:  WARN: pmix: unknown optional fence attr: pmix.sorted.parr
flux-shell[1]:  WARN: pmix: unknown optional fence attr: pmix.size.est
LAMMPS (29 Sep 2021 - Update 2)
OMP_NUM_THREADS environment is not set. Defaulting to 1 thread. (src/comm.cpp:98)
  using 1 OpenMP thread(s) per MPI task
Reading data file ...
  triclinic box = (0.0000000 0.0000000 0.0000000) to (22.326000 11.141200 13.778966) with tilt (0.0000000 -5.0260300 0.0000000)
  7 by 4 by 4 MPI processor grid
  reading atoms ...
  304 atoms
  reading velocities ...
  304 velocities
  read_data CPU = 0.007 seconds
Replicating atoms ...
  triclinic box = (0.0000000 0.0000000 0.0000000) to (44.652000 22.282400 27.557932) with tilt (0.0000000 -10.052060 0.0000000)
  7 by 4 by 4 MPI processor grid
  bounding box image = (0 -1 -1) to (0 1 1)
  bounding box extra memory = 0.03 MB
  average # of replicas added to proc = 4.86 out of 8 (60.71%)
  2432 atoms
  replicate CPU = 0.005 seconds
Neighbor list info ...
  update every 20 steps, delay 0 steps, check no
  max neighbors/atom: 2000, page size: 100000
  master list distance cutoff = 11
  ghost atom cutoff = 11
  binsize = 5.5, bins = 10 5 6
  2 neighbor lists, perpetual/occasional/extra = 2 0 0
  (1) pair reax/c, perpetual
      attributes: half, newton off, ghost
      pair build: half/bin/newtoff/ghost
      stencil: full/ghost/bin/3d
      bin: standard
  (2) fix qeq/reax, perpetual, copy from (1)
      attributes: half, newton off, ghost
      pair build: copy
      stencil: none
      bin: none
Setting up Verlet run ...
  Unit style    : real
  Current step  : 0
  Time step     : 0.1
Per MPI rank memory allocation (min/avg/max) = 35.50 | 36.39 | 37.14 Mbytes
Step Temp PotEng Press E_vdwl E_coul Volume 
       0          300   -113.27833    437.52134   -111.57687   -1.7014647    27418.867 
      10    299.38517   -113.27631    1439.2955   -111.57492   -1.7013813    27418.867 
      20    300.27107   -113.27884    3764.3502   -111.57762   -1.7012246    27418.867 
      30    302.21063   -113.28428    7007.6281   -111.58335   -1.7009364    27418.867 
      40    303.52264   -113.28799    9844.7928   -111.58747   -1.7005187    27418.867 
      50    301.87059   -113.28324    9663.0192   -111.58318   -1.7000524    27418.867 
      60    296.67807   -113.26777    7273.7904   -111.56815   -1.6996137    27418.867 
      70    292.19997   -113.25435    5533.6284   -111.55514   -1.6992157    27418.867 
      80    293.58674   -113.25831    5993.3991   -111.55946   -1.6988534    27418.867 
      90    300.62635   -113.27925    7202.8695   -111.58069   -1.6985591    27418.867 
     100    305.38277   -113.29357    10085.737   -111.59518   -1.6983875    27418.867 
Loop time of 7.6038 on 112 procs for 100 steps with 2432 atoms

Performance: 0.114 ns/day, 211.217 hours/ns, 13.151 timesteps/s
24.6% CPU use with 112 MPI tasks x 1 OpenMP threads

MPI task timing breakdown:
Section |  min time  |  avg time  |  max time  |%varavg| %total
---------------------------------------------------------------
Pair    | 1.2226     | 1.3984     | 1.5856     |   7.5 | 18.39
Neigh   | 0.042065   | 0.044328   | 0.047603   |   0.5 |  0.58
Comm    | 0.45832    | 0.654      | 0.82541    |  11.4 |  8.60
Output  | 0.014042   | 0.018126   | 0.022612   |   2.1 |  0.24
Modify  | 5.4757     | 5.4883     | 5.5009     |   0.3 | 72.18
Other   |            | 0.0006324  |            |       |  0.01

Nlocal:        21.7143 ave          30 max          17 min
Histogram: 9 7 22 35 19 10 5 1 1 3
Nghost:        2065.98 ave        2116 max        2003 min
Histogram: 10 6 8 8 8 15 15 22 10 10
Neighs:        10426.0 ave       14390 max        8197 min
Histogram: 9 7 24 33 19 10 5 1 1 3

Total # of neighbors = 1167712
Ave neighs/atom = 480.14474
Neighbor list builds = 5
Dangerous builds not checked
Total wall time: 0:00:07
