WARNING on proc 0: Cannot open log.lammps for writing: Permission denied (src/lammps.cpp:486)
LAMMPS (29 Sep 2021 - Update 2)
OMP_NUM_THREADS environment is not set. Defaulting to 1 thread. (src/comm.cpp:98)
  using 1 OpenMP thread(s) per MPI task
Reading data file ...
  triclinic box = (0.0000000 0.0000000 0.0000000) to (22.326000 11.141200 13.778966) with tilt (0.0000000 -5.0260300 0.0000000)
  2 by 1 by 1 MPI processor grid
  reading atoms ...
  304 atoms
  reading velocities ...
  304 velocities
  read_data CPU = 0.011 seconds
Replicating atoms ...
  triclinic box = (0.0000000 0.0000000 0.0000000) to (22.326000 11.141200 13.778966) with tilt (0.0000000 -5.0260300 0.0000000)
  2 by 1 by 1 MPI processor grid
  bounding box image = (0 -1 -1) to (0 1 1)
  bounding box extra memory = 0.03 MB
  average # of replicas added to proc = 1.00 out of 1 (100.00%)
  304 atoms
  replicate CPU = 0.002 seconds
Neighbor list info ...
  update every 20 steps, delay 0 steps, check no
  max neighbors/atom: 2000, page size: 100000
  master list distance cutoff = 11
  ghost atom cutoff = 11
  binsize = 5.5, bins = 5 3 3
  2 neighbor lists, perpetual/occasional/extra = 2 0 0
  (1) pair reax/c, perpetual
      attributes: half, newton off, ghost
      pair build: half/bin/newtoff/ghost
      stencil: full/ghost/bin/3d
      bin: standard
  (2) fix qeq/reax, perpetual, copy from (1)
      attributes: half, newton off, ghost
      pair build: copy
      stencil: none
      bin: none
Setting up Verlet run ...
  Unit style    : real
  Current step  : 0
  Time step     : 0.1
Per MPI rank memory allocation (min/avg/max) = 58.81 | 59.37 | 59.93 Mbytes
Step Temp PotEng Press E_vdwl E_coul Volume 
       0          300   -113.27833    427.09007   -111.57687   -1.7014647    3427.3584 
      10    298.13784   -113.27279    1855.1447   -111.57169   -1.7011017    3427.3584 
      20    294.02746   -113.25991    3911.5141     -111.559   -1.7009101    3427.3584 
      30    293.61692   -113.25867    7296.5776   -111.55793   -1.7007374    3427.3584 
      40    301.40292   -113.28175    9622.4191   -111.58127   -1.7004797    3427.3584 
      50    310.92488   -113.31003    10101.268   -111.60982   -1.7002116    3427.3584 
      60    311.37774   -113.31149    9274.1243   -111.61144   -1.7000446    3427.3584 
      70    302.58349   -113.28582    6350.6618   -111.58587   -1.6999549    3427.3584 
      80    295.34242   -113.26406    6795.0375   -111.56427   -1.6997975    3427.3584 
      90    299.15723   -113.27518    9198.0407   -111.57566   -1.6995238    3427.3584 
     100    307.63995   -113.30058    9424.5061   -111.60129   -1.6992878    3427.3584 
Loop time of 10.9855 on 2 procs for 100 steps with 304 atoms

Performance: 0.079 ns/day, 305.153 hours/ns, 9.103 timesteps/s
76.3% CPU use with 2 MPI tasks x 1 OpenMP threads

MPI task timing breakdown:
Section |  min time  |  avg time  |  max time  |%varavg| %total
---------------------------------------------------------------
Pair    | 3.2829     | 4.0318     | 4.7807     |  37.3 | 36.70
Neigh   | 0.094463   | 0.11557    | 0.13668    |   6.2 |  1.05
Comm    | 0.090205   | 0.83916    | 1.5881     |  81.8 |  7.64
Output  | 0.023033   | 0.023058   | 0.023082   |   0.0 |  0.21
Modify  | 5.9541     | 5.975      | 5.996      |   0.9 | 54.39
Other   |            | 0.0008798  |            |       |  0.01

Nlocal:        152.000 ave         154 max         150 min
Histogram: 1 0 0 0 0 0 0 0 0 1
Nghost:        3415.50 ave        3432 max        3399 min
Histogram: 1 0 0 0 0 0 0 0 0 1
Neighs:        65342.5 ave       66163 max       64522 min
Histogram: 1 0 0 0 0 0 0 0 0 1

Total # of neighbors = 130685
Ave neighs/atom = 429.88487
Neighbor list builds = 5
Dangerous builds not checked
Total wall time: 0:00:11
