LAMMPS (29 Sep 2021 - Update 2)
OMP_NUM_THREADS environment is not set. Defaulting to 1 thread. (src/comm.cpp:98)
  using 1 OpenMP thread(s) per MPI task
Reading data file ...
  triclinic box = (0.0000000 0.0000000 0.0000000) to (22.326000 11.141200 13.778966) with tilt (0.0000000 -5.0260300 0.0000000)
  3 by 1 by 2 MPI processor grid
  reading atoms ...
  304 atoms
  reading velocities ...
  304 velocities
  read_data CPU = 0.055 seconds
Replicating atoms ...
  triclinic box = (0.0000000 0.0000000 0.0000000) to (44.652000 22.282400 27.557932) with tilt (0.0000000 -10.052060 0.0000000)
  3 by 1 by 2 MPI processor grid
  bounding box image = (0 -1 -1) to (0 1 1)
  bounding box extra memory = 0.03 MB
  average # of replicas added to proc = 6.00 out of 8 (75.00%)
  2432 atoms
  replicate CPU = 0.059 seconds
Neighbor list info ...
  update every 20 steps, delay 0 steps, check no
  max neighbors/atom: 2000, page size: 100000
  master list distance cutoff = 11
  ghost atom cutoff = 11
  binsize = 5.5, bins = 10 5 6
  2 neighbor lists, perpetual/occasional/extra = 2 0 0
  (1) pair reax/c, perpetual
      attributes: half, newton off, ghost
      pair build: half/bin/newtoff/ghost
      stencil: full/ghost/bin/3d
      bin: standard
  (2) fix qeq/reax, perpetual, copy from (1)
      attributes: half, newton off, ghost
      pair build: copy
      stencil: none
      bin: none
Setting up Verlet run ...
  Unit style    : real
  Current step  : 0
  Time step     : 0.1
Per MPI rank memory allocation (min/avg/max) = 85.40 | 87.27 | 88.49 Mbytes
Step Temp PotEng Press E_vdwl E_coul Volume 
       0          300   -113.27833    437.52118   -111.57687   -1.7014647    27418.867 
      10    299.38517   -113.27631    1439.2508   -111.57492   -1.7013814    27418.867 
      20    300.27108   -113.27884    3764.3475   -111.57762   -1.7012246    27418.867 
      30    302.21063   -113.28428    7007.6949   -111.58335   -1.7009363    27418.867 
      40    303.52264   -113.28799    9844.7951   -111.58747   -1.7005187    27418.867 
      50     301.8706   -113.28324    9663.0403   -111.58318   -1.7000524    27418.867 
      60    296.67807   -113.26777    7273.8422   -111.56815   -1.6996136    27418.867 
      70        292.2   -113.25435    5533.6381   -111.55514   -1.6992157    27418.867 
      80    293.58678   -113.25831    5993.3992   -111.55946   -1.6988534    27418.867 
      90    300.62636   -113.27925    7202.8561   -111.58069   -1.6985592    27418.867 
     100    305.38277   -113.29357    10085.772   -111.59518   -1.6983875    27418.867 
Loop time of 67.2871 on 6 procs for 100 steps with 2432 atoms

Performance: 0.013 ns/day, 1869.087 hours/ns, 1.486 timesteps/s
34.4% CPU use with 6 MPI tasks x 1 OpenMP threads

MPI task timing breakdown:
Section |  min time  |  avg time  |  max time  |%varavg| %total
---------------------------------------------------------------
Pair    | 3.9667     | 8.8228     | 12.467     |  97.2 | 13.11
Neigh   | 0.15791    | 0.30091    | 0.4229     |  18.0 |  0.45
Comm    | 3.0809     | 6.7281     | 11.557     | 110.7 | 10.00
Output  | 0.22198    | 0.23732    | 0.24963    |   2.4 |  0.35
Modify  | 51.066     | 51.193     | 51.353     |   1.5 | 76.08
Other   |            | 0.005168   |            |       |  0.01

Nlocal:        405.333 ave         419 max         383 min
Histogram: 1 1 0 0 0 0 0 1 0 3
Nghost:        4910.17 ave        4980 max        4799 min
Histogram: 2 0 0 0 0 0 0 0 2 2
Neighs:        160018.0 ave      164668 max      152476 min
Histogram: 1 1 0 0 0 0 0 1 0 3

Total # of neighbors = 960110
Ave neighs/atom = 394.78207
Neighbor list builds = 5
Dangerous builds not checked
Total wall time: 0:01:09
